#     Step Nr.          Time[fs]        Kin.[a.u.]          Temp[K]            Pot.[a.u.]        Cons Qty[a.u.]        UsedTime[s]
         0            0.000000         0.019000892       200.000000000      -299.141615821      -299.103614037         0.000000000
         1            0.200000         0.018959081       199.559907181      -299.144078014      -299.106117949        91.179514885
