      20
 i =        0, time =        0.000, E =      -298.6358106667
 Cl         5.8697799430        2.3753210169        6.5254176857
 Cl         7.5832107605        1.5555559634        5.8740157796
 Cl         2.7899207901        7.0181044671       -0.0011963134
 Cl         3.2664349642        8.9666823744        0.0193047220
 Cl         7.3416037642        3.3674361720        7.8383908849
 Cl         8.9850589012        3.4326714015        8.9895390123
 Cl         1.1076628874        3.9903670119        2.7904964058
 Cl         0.9775304459        4.1573394186        0.7956517900
 Cl         8.9972220527        8.9981314230        4.3990414610
 Cl         8.9944289589        8.9981570975        6.4049617070
 Cl         2.2373232440        1.8824156111        3.0859277277
 Cl         1.2309655624        0.8596285203        4.4887420626
 Cl         0.8842652703        8.9042726228        8.0022461991
 Cl         2.8707210449        8.8546373308        7.7226181046
 Cl         8.0976400032        4.9297672871        1.1617584053
 Cl         6.1936649833        4.6792390336        1.7468005894
 Cl         2.8915825116        5.2984004792        3.6597556427
 Cl         4.8727440128        5.5010679018        3.4043429209
 Cl         4.9781619793        0.0148987994        0.8534588980
 Cl         6.9110779367        0.0169061770        0.3147261708
      20
 i =        1, time =        1.000, E =      -299.0524202467
 Cl         5.8676376849        2.3770419025        6.5274208674
 Cl         7.5849240980        1.5529791101        5.8738073268
 Cl         2.7893916620        7.0181124017       -0.0021452131
 Cl         3.2686673225        8.9654910404        0.0207942385
 Cl         7.3395792554        3.3698193248        7.8353966683
 Cl         8.9857862047        3.4310580671        8.9925382811
 Cl         1.1054579216        3.9921752407        2.7932077514
 Cl         0.9801836463        4.1591480564        0.7984944011
 Cl         8.9983307829        8.9987915005        4.3986410449
 Cl         8.9965763641        8.9989379274        6.4003842182
 Cl         2.2392009078        1.8842582437        3.0904508416
 Cl         1.2306853362        0.8576606736        4.4876299946
 Cl         0.8851092643        8.9006637614        8.0035157380
 Cl         2.8698025164        8.8577915425        7.7206327351
 Cl         8.0963839607        4.9287192397        1.1604225230
 Cl         6.1916878579        4.6751901080        1.7456462211
 Cl         2.8895702121        5.2956730090        3.6636687759
 Cl         4.8715147108        5.5015519882        3.4013421985
 Cl         4.9787326773        0.0145057073        0.8508833836
 Cl         6.9117780497        0.0214340084        0.3132642548
      20
 i =        2, time =        2.000, E =      -299.1400633282
 Cl         5.8644678803        2.3786214347        6.5289289831
 Cl         7.5869580875        1.5499343441        5.8731628046
 Cl         2.7887462610        7.0179071448       -0.0030776668
 Cl         3.2709354246        8.9643540879        0.0222916076
 Cl         7.3378363336        3.3726604382        7.8329872640
 Cl         8.9869415752        3.4295789754        8.9958510208
 Cl         1.1021438679        3.9945034197        2.7958685497
 Cl         0.9827963351        4.1610098555        0.8010537303
 Cl         8.9994378749        8.9994578044        4.3979717071
 Cl         8.9987029327        8.9997182414        6.3960799177
 Cl         2.2415787304        1.8851955518        3.0950850071
 Cl         1.2303778161        0.8556238121        4.4865723068
 Cl         0.8857312041        8.8970682900        8.0047833990
 Cl         2.8691239492        8.8609317792        7.7185679418
 Cl         8.0955145760        4.9276894014        1.1589257232
 Cl         6.1898937991        4.6709657686        1.7442134014
 Cl         2.8876108040        5.2932672731        3.6677775139
 Cl         4.8703376176        5.5022880813        3.3987767645
 Cl         4.9792881095        0.0142577211        0.8484068249
 Cl         6.9125782445        0.0259778790        0.3117584816
