#     Step Nr.          Time[fs]        Kin.[a.u.]          Temp[K]            Pot.[a.u.]        Cons Qty[a.u.]        UsedTime[s]
         0            0.000000         0.019000892       200.000000000      -298.635810667      -298.597808883         0.000000000
         1            1.000000         0.019184513       201.932764136      -299.052420247      -299.014232344        29.892099142
         2            2.000000         0.020139232       211.981967540      -299.140063328      -299.100915044        14.509638071
