 DBCSR| CPU Multiplication driver                                           BLAS
 DBCSR| Multrec recursion limit                                              512
 DBCSR| Multiplication stack size                                           1000
 DBCSR| Maximum elements for images                                    UNLIMITED
 DBCSR| Multiplicative factor virtual images                                   1
 DBCSR| Use multiplication densification                                       T
 DBCSR| Multiplication size stacks                                             3
 DBCSR| Number of 3D layers                                               SINGLE
 DBCSR| Use MPI memory allocation                                              T
 DBCSR| Use RMA algorithm                                                      F
 DBCSR| Use Communication thread                                               T
 DBCSR| Communication thread load                                             87


  **** **** ******  **  PROGRAM STARTED AT               2020-06-17 20:21:14.994
 ***** ** ***  *** **   PROGRAM STARTED ON                                ln1001
 **    ****   ******    PROGRAM STARTED BY                              singh891
 ***** **    ** ** **   PROGRAM PROCESS ID                                 11627
  **** **  *******  **  PROGRAM STARTED IN /panfs/roc/scratch/singh891/dlt/cp2km
                                           d

 CP2K| version string:                    CP2K version 7.0 (Development Version)
 CP2K| source code revision number:                                  git:7cd08c2
 CP2K| cp2kflags: fftw3 parallel mpi3 scalapack                                 
 CP2K| is freely available from                            https://www.cp2k.org/
 CP2K| Program compiled at                          Tue May 28 11:01:45 CDT 2019
 CP2K| Program compiled on                                                ln0003
 CP2K| Program compiled for                                   Linux-x86-64-intel
 CP2K| Data directory path    /panfs/roc/groups/12/siepmann/singh891/test-cp2k/c
 CP2K| Input file name                                               md-main.inp
 
 GLOBAL| Force Environment number                                              1
 GLOBAL| Basis set file name            /home/siepmann/singh891/cp2k-6.1.0/data/
 GLOBAL| Potential file name            /home/siepmann/singh891/cp2k-6.1.0/data/
 GLOBAL| MM Potential file name                                     MM_POTENTIAL
 GLOBAL| Coordinate file name                                      __STD_INPUT__
 GLOBAL| Method name                                                        CP2K
 GLOBAL| Project name                                                   chlorine
 GLOBAL| Preferred FFT library                                             FFTW3
 GLOBAL| Preferred diagonalization lib.                                       SL
 GLOBAL| Run type                                                             MD
 GLOBAL| All-to-all communication in single precision                          F
 GLOBAL| FFTs using library dependent lengths                                  F
 GLOBAL| Global print level                                                  LOW
 GLOBAL| MPI I/O enabled                                                       T
 GLOBAL| Total number of message passing processes                             1
 GLOBAL| Number of threads for this process                                    1
 GLOBAL| This output is from process                                           0
 GLOBAL| CPU model name :  AMD EPYC 7302P 16-Core Processor

 MEMORY| system memory details [Kb]
 MEMORY|                        rank 0           min           max       average
 MEMORY| MemTotal            131755244     131755244     131755244     131755244
 MEMORY| MemFree               5857564       5857564       5857564       5857564
 MEMORY| Buffers                  5256          5256          5256          5256
 MEMORY| Cached              120767236     120767236     120767236     120767236
 MEMORY| Slab                  2647544       2647544       2647544       2647544
 MEMORY| SReclaimable          2282872       2282872       2282872       2282872
 MEMORY| MemLikelyFree       128912928     128912928     128912928     128912928

 
 GENERATE|  Preliminary Number of Bonds generated:                             0
 GENERATE|  Achieved consistency in connectivity generation.

 *******************************************************************************
 *******************************************************************************
 **                                                                           **
 **     #####                         ##              ##                      **
 **    ##   ##            ##          ##              ##                      **
 **   ##     ##                       ##            ######                    **
 **   ##     ##  ##   ##  ##   #####  ##  ##   ####   ##    #####    #####    **
 **   ##     ##  ##   ##  ##  ##      ## ##   ##      ##   ##   ##  ##   ##   **
 **   ##  ## ##  ##   ##  ##  ##      ####     ###    ##   ######   ######    **
 **    ##  ###   ##   ##  ##  ##      ## ##      ##   ##   ##       ##        **
 **     #######   #####   ##   #####  ##  ##  ####    ##    #####   ##        **
 **           ##                                                    ##        **
 **                                                                           **
 **                                                ... make the atoms dance   **
 **                                                                           **
 **            Copyright (C) by CP2K developers group (2000 - 2019)           **
 **                                                                           **
 *******************************************************************************


 TOTAL NUMBERS AND MAXIMUM NUMBERS

  Total number of            - Atomic kinds:                                   1
                             - Atoms:                                         20
                             - Shell sets:                                    20
                             - Shells:                                       100
                             - Primitive Cartesian functions:                 80
                             - Cartesian basis functions:                    280
                             - Spherical basis functions:                    260

  Maximum angular momentum of- Orbital basis functions:                        2
                             - Local part of the GTH pseudopotential:          0
                             - Non-local part of the GTH pseudopotential:      2


 SCF PARAMETERS         Density guess:                                    ATOMIC
                        --------------------------------------------------------
                        max_scf:                                               2
                        max_scf_history:                                       0
                        max_diis:                                              4
                        --------------------------------------------------------
                        eps_scf:                                        1.00E-06
                        eps_scf_history:                                0.00E+00
                        eps_diis:                                       1.00E-01
                        eps_eigval:                                     1.00E-05
                        --------------------------------------------------------
                        level_shift [a.u.]:                                 0.00
                        --------------------------------------------------------
                        Outer loop SCF in use 
                        No variables optimised in outer loop
                        eps_scf                                         1.00E-06
                        max_scf                                                2
                        No outer loop optimization
                        step_size                                       5.00E-01
 
 MD| Molecular Dynamics Protocol 
 MD| Ensemble Type                                                           NVT
 MD| Number of Time Steps                                                      2
 MD| Time Step [fs]                                                         1.00
 MD| Temperature [K]                                                      200.00
 MD| Temperature tolerance [K]                                              0.00
 MD| Constraints activated 
 MD| Tolerance for shake                                              0.1000E-05
 MD| Print MD information every                                        1 step(s)
 MD| File type     Print frequency[steps]                             File names
 MD| Coordinates            1                                 chlorine-pos-1.xyz
 MD| Velocities             1                                 chlorine-vel-1.xyz
 MD| Energies               1                                    chlorine-1.ener
 MD| Dump                   1                                 chlorine-1.restart
 
 ROT| Rotational Analysis Info 
 ROT| Principal axes and moments of inertia in atomic units:
 ROT|                                1                 2                 3
 ROT| EIGENVALUES            0.683897006E+08   0.765860014E+08   0.910817050E+08
 ROT|      X                     0.458445695       0.625059420      -0.631765990
 ROT|      Y                     0.549615640      -0.758032975      -0.351153324
 ROT|      Z                     0.698391146       0.186243739       0.691059387
 ROT| Number of Rotovibrational vectors:     6

 Calculation of degrees of freedom
                                                      Number of atoms:        20
                                 Number of Intramolecular constraints:         0
                                 Number of Intermolecular constraints:         0
                                  Invariants(translation + rotations):         0
                                                   Degrees of freedom:        60


 Restraints Information
                                  Number of Intramolecular restraints:         0
                                  Number of Intermolecular restraints:         0

 THERMOSTAT| Thermostat Info for PARTICLES
 THERMOSTAT| Type of thermostat                               Nose-Hoover-Chains
 THERMOSTAT| Nose-Hoover-Chain length                                          3
 THERMOSTAT| Nose-Hoover-Chain time constant [  fs]                      1000.00
 THERMOSTAT| Order of Yoshida integrator                                       3
 THERMOSTAT| Number of multiple time steps                                     2
 THERMOSTAT| Initial Potential Energy                                   0.000000
 THERMOSTAT| Initial Kinetic Energy                                     0.019001
 THERMOSTAT| End of Thermostat Info for PARTICLES

 ************************** Velocities initialization **************************
 Initial Temperature                                                    200.00 K
 COM velocity:           -0.000000000000     -0.000000000000      0.000000000000
 *******************************************************************************


 Number of electrons:                                                        140
 Number of occupied orbitals:                                                 70
 Number of molecular orbitals:                                                70

 Number of orbital functions:                                                260
 Number of independent orbital functions:                                    260

 Extrapolation method: initial_guess


 SCF WAVEFUNCTION OPTIMIZATION

  ----------------------------------- OT ---------------------------------------
  Minimizer      : DIIS                : direct inversion
                                         in the iterative subspace
                                         using   7 DIIS vectors
                                         safer DIIS on
  Preconditioner : FULL_SINGLE_INVERSE : inversion of 
                                         H + eS - 2*(Sc)(c^T*H*c+const)(Sc)^T
  Precond_solver : DEFAULT
  stepsize       :    0.08000000                  energy_gap     :    0.08000000
  eps_taylor     :   0.10000E-15                  max_taylor     :             4
  ----------------------------------- OT ---------------------------------------

  Step     Update method      Time    Convergence         Total energy    Change
  ------------------------------------------------------------------------------
     1 OT DIIS     0.80E-01    2.2     0.04742144      -294.6648034549 -2.95E+02
     2 OT DIIS     0.80E-01    1.8     0.02838224      -296.6215567439 -1.96E+00

  Leaving inner SCF loop after reaching     2 steps.


  Electronic density on regular grids:       -139.9999999819        0.0000000181
  Core density on regular grids:              139.9999989581       -0.0000010419
  Total charge density on r-space grids:       -0.0000010238
  Total charge density g-space grids:          -0.0000010238

  Overlap energy of the core charge distribution:               0.00000000792135
  Self energy of the core charge distribution:               -674.27535594731853
  Core Hamiltonian energy:                                    160.54887327310715
  Hartree energy:                                             275.39291994880870
  Exchange-correlation energy:                                -58.26183236302237
  Dispersion energy:                                           -0.02616166337560

  Total energy:                                              -296.62155674387935

  outer SCF iter =    1 RMS gradient =   0.28E-01 energy =       -296.6215567439

  ----------------------------------- OT ---------------------------------------
  Minimizer      : DIIS                : direct inversion
                                         in the iterative subspace
                                         using   7 DIIS vectors
                                         safer DIIS on
  Preconditioner : FULL_SINGLE_INVERSE : inversion of 
                                         H + eS - 2*(Sc)(c^T*H*c+const)(Sc)^T
  Precond_solver : DEFAULT
  stepsize       :    0.08000000                  energy_gap     :    0.08000000
  eps_taylor     :   0.10000E-15                  max_taylor     :             4
  ----------------------------------- OT ---------------------------------------

  Step     Update method      Time    Convergence         Total energy    Change
  ------------------------------------------------------------------------------
     1 OT DIIS     0.80E-01    3.7     0.02282690      -297.3444449625 -7.23E-01
     2 OT DIIS     0.80E-01    1.8     0.01806104      -297.9495903434 -6.05E-01

  Leaving inner SCF loop after reaching     2 steps.


  Electronic density on regular grids:       -139.9999999814        0.0000000186
  Core density on regular grids:              139.9999989581       -0.0000010419
  Total charge density on r-space grids:       -0.0000010234
  Total charge density g-space grids:          -0.0000010234

  Overlap energy of the core charge distribution:               0.00000000792135
  Self energy of the core charge distribution:               -674.27535594731853
  Core Hamiltonian energy:                                    158.46034013796583
  Hartree energy:                                             276.06720969034910
  Exchange-correlation energy:                                -58.17562256895354
  Dispersion energy:                                           -0.02616166337560

  Total energy:                                              -297.94959034341144

  outer SCF iter =    2 RMS gradient =   0.18E-01 energy =       -297.9495903434

  ----------------------------------- OT ---------------------------------------
  Minimizer      : DIIS                : direct inversion
                                         in the iterative subspace
                                         using   7 DIIS vectors
                                         safer DIIS on
  Preconditioner : FULL_SINGLE_INVERSE : inversion of 
                                         H + eS - 2*(Sc)(c^T*H*c+const)(Sc)^T
  Precond_solver : DEFAULT
  stepsize       :    0.08000000                  energy_gap     :    0.08000000
  eps_taylor     :   0.10000E-15                  max_taylor     :             4
  ----------------------------------- OT ---------------------------------------

  Step     Update method      Time    Convergence         Total energy    Change
  ------------------------------------------------------------------------------
     1 OT DIIS     0.80E-01    3.7     0.01477597      -298.2855149732 -3.36E-01
     2 OT DIIS     0.80E-01    1.8     0.01347678      -298.5161494235 -2.31E-01

  Leaving inner SCF loop after reaching     2 steps.


  Electronic density on regular grids:       -139.9999999806        0.0000000194
  Core density on regular grids:              139.9999989581       -0.0000010419
  Total charge density on r-space grids:       -0.0000010225
  Total charge density g-space grids:          -0.0000010225

  Overlap energy of the core charge distribution:               0.00000000792135
  Self energy of the core charge distribution:               -674.27535594731853
  Core Hamiltonian energy:                                    157.07223838630986
  Hartree energy:                                             276.81330246553819
  Exchange-correlation energy:                                -58.10017267259203
  Dispersion energy:                                           -0.02616166337560

  Total energy:                                              -298.51614942351671

  outer SCF iter =    3 RMS gradient =   0.13E-01 energy =       -298.5161494235
  outer SCF loop FAILED to converge after    3 iterations or    6 steps


 *** WARNING in qs_scf.F:542 :: SCF run NOT converged ***

 Writing restart DM chlorine_SCF_DM_SPIN_1_RESTART.dm with checksum:       0.11431360E+04

 ENERGY| Total FORCE_EVAL ( QS ) energy (a.u.):             -298.635810666705311

 
 MD_ENERGIES| Initialization proceeding
 

 ******************************** GO CP2K GO! **********************************
 INITIAL POTENTIAL ENERGY[hartree]     =                     -0.298635810667E+03
 INITIAL KINETIC ENERGY[hartree]       =                      0.190008920597E-01
 INITIAL TEMPERATURE[K]                =                                 200.000
 INITIAL PRESSURE[bar]                 =                      0.451185074584E+05
 INITIAL VOLUME[bohr^3]                =                      0.898203333009E+04
 INITIAL CELL LNTHS[bohr]   =      0.2078699E+02   0.2078699E+02   0.2078699E+02
 INITIAL CELL ANGLS[deg]    =      0.9000000E+02   0.9000000E+02   0.9000000E+02
 ******************************** GO CP2K GO! **********************************

 Number of electrons:                                                        140
 Number of occupied orbitals:                                                 70
 Number of molecular orbitals:                                                70

 Number of orbital functions:                                                260
 Number of independent orbital functions:                                    260

 Extrapolation method: ASPC


 SCF WAVEFUNCTION OPTIMIZATION

  ----------------------------------- OT ---------------------------------------
  Minimizer      : DIIS                : direct inversion
                                         in the iterative subspace
                                         using   7 DIIS vectors
                                         safer DIIS on
  Preconditioner : FULL_SINGLE_INVERSE : inversion of 
                                         H + eS - 2*(Sc)(c^T*H*c+const)(Sc)^T
  Precond_solver : DEFAULT
  stepsize       :    0.08000000                  energy_gap     :    0.08000000
  eps_taylor     :   0.10000E-15                  max_taylor     :             4
  ----------------------------------- OT ---------------------------------------

  Step     Update method      Time    Convergence         Total energy    Change
  ------------------------------------------------------------------------------
     1 OT DIIS     0.80E-01    1.7     0.01021518      -298.6361766204 -2.99E+02
     2 OT DIIS     0.80E-01    1.9     0.00904169      -298.7672704083 -1.31E-01

  Leaving inner SCF loop after reaching     2 steps.


  Electronic density on regular grids:       -139.9999999804        0.0000000196
  Core density on regular grids:              139.9999989594       -0.0000010406
  Total charge density on r-space grids:       -0.0000010209
  Total charge density g-space grids:          -0.0000010209

  Overlap energy of the core charge distribution:               0.00000000782528
  Self energy of the core charge distribution:               -674.27535594731853
  Core Hamiltonian energy:                                    156.47821566672405
  Hartree energy:                                             277.13619743238814
  Exchange-correlation energy:                                -58.08015840771519
  Dispersion energy:                                           -0.02616916016281

  Total energy:                                              -298.76727040825904

  outer SCF iter =    1 RMS gradient =   0.90E-02 energy =       -298.7672704083

  ----------------------------------- OT ---------------------------------------
  Minimizer      : DIIS                : direct inversion
                                         in the iterative subspace
                                         using   7 DIIS vectors
                                         safer DIIS on
  Preconditioner : FULL_SINGLE_INVERSE : inversion of 
                                         H + eS - 2*(Sc)(c^T*H*c+const)(Sc)^T
  Precond_solver : DEFAULT
  stepsize       :    0.08000000                  energy_gap     :    0.08000000
  eps_taylor     :   0.10000E-15                  max_taylor     :             4
  ----------------------------------- OT ---------------------------------------

  Step     Update method      Time    Convergence         Total energy    Change
  ------------------------------------------------------------------------------
     1 OT DIIS     0.80E-01    3.9     0.00808632      -298.8483202777 -8.10E-02
     2 OT DIIS     0.80E-01    1.9     0.00820188      -298.9224010076 -7.41E-02

  Leaving inner SCF loop after reaching     2 steps.


  Electronic density on regular grids:       -139.9999999800        0.0000000200
  Core density on regular grids:              139.9999989594       -0.0000010406
  Total charge density on r-space grids:       -0.0000010206
  Total charge density g-space grids:          -0.0000010206

  Overlap energy of the core charge distribution:               0.00000000782528
  Self energy of the core charge distribution:               -674.27535594731853
  Core Hamiltonian energy:                                    156.14742123802674
  Hartree energy:                                             277.31722296777730
  Exchange-correlation energy:                                -58.08552011377976
  Dispersion energy:                                           -0.02616916016281

  Total energy:                                              -298.92240100763178

  outer SCF iter =    2 RMS gradient =   0.82E-02 energy =       -298.9224010076

  ----------------------------------- OT ---------------------------------------
  Minimizer      : DIIS                : direct inversion
                                         in the iterative subspace
                                         using   7 DIIS vectors
                                         safer DIIS on
  Preconditioner : FULL_SINGLE_INVERSE : inversion of 
                                         H + eS - 2*(Sc)(c^T*H*c+const)(Sc)^T
  Precond_solver : DEFAULT
  stepsize       :    0.08000000                  energy_gap     :    0.08000000
  eps_taylor     :   0.10000E-15                  max_taylor     :             4
  ----------------------------------- OT ---------------------------------------

  Step     Update method      Time    Convergence         Total energy    Change
  ------------------------------------------------------------------------------
     1 OT DIIS     0.80E-01    3.9     0.00668400      -298.9598036321 -3.74E-02
     2 OT DIIS     0.80E-01    1.9     0.00621235      -299.0182358138 -5.84E-02

  Leaving inner SCF loop after reaching     2 steps.


  Electronic density on regular grids:       -139.9999999798        0.0000000202
  Core density on regular grids:              139.9999989594       -0.0000010406
  Total charge density on r-space grids:       -0.0000010204
  Total charge density g-space grids:          -0.0000010204

  Overlap energy of the core charge distribution:               0.00000000782528
  Self energy of the core charge distribution:               -674.27535594731853
  Core Hamiltonian energy:                                    155.95294449106814
  Hartree energy:                                             277.42390576296111
  Exchange-correlation energy:                                -58.09356096814186
  Dispersion energy:                                           -0.02616916016281

  Total energy:                                              -299.01823581376863

  outer SCF iter =    3 RMS gradient =   0.62E-02 energy =       -299.0182358138
  outer SCF loop FAILED to converge after    3 iterations or    6 steps


 *** WARNING in qs_scf.F:542 :: SCF run NOT converged ***

 Writing restart DM chlorine_SCF_DM_SPIN_1_RESTART.dm with checksum:       0.10958332E+04

 ENERGY| Total FORCE_EVAL ( QS ) energy (a.u.):             -299.052420246728673


 *******************************************************************************
 ENSEMBLE TYPE                =                                              NVT
 STEP NUMBER                  =                                                1
 TIME [fs]                    =                                         1.000000
 CONSERVED QUANTITY [hartree] =                              -0.299014232344E+03

                                              INSTANTANEOUS             AVERAGES
 CPU TIME [s]                 =                       29.89                29.89
 ENERGY DRIFT PER ATOM [K]    =         -0.657479858987E+04   0.000000000000E+00
 POTENTIAL ENERGY[hartree]    =         -0.299052420247E+03  -0.299052420247E+03
 KINETIC ENERGY [hartree]     =          0.191845132734E-01   0.191845132734E-01
 TEMPERATURE [K]              =                     201.933              201.933
 PRESSURE [bar]               =          0.235745552105E+05   0.235745552105E+05
 *******************************************************************************


 Number of electrons:                                                        140
 Number of occupied orbitals:                                                 70
 Number of molecular orbitals:                                                70

 Number of orbital functions:                                                260
 Number of independent orbital functions:                                    260

 Extrapolation method: ASPC


 SCF WAVEFUNCTION OPTIMIZATION

  ----------------------------------- OT ---------------------------------------
  Minimizer      : DIIS                : direct inversion
                                         in the iterative subspace
                                         using   7 DIIS vectors
                                         safer DIIS on
  Preconditioner : FULL_SINGLE_INVERSE : inversion of 
                                         H + eS - 2*(Sc)(c^T*H*c+const)(Sc)^T
  Precond_solver : DEFAULT
  stepsize       :    0.08000000                  energy_gap     :    0.08000000
  eps_taylor     :   0.10000E-15                  max_taylor     :             4
  ----------------------------------- OT ---------------------------------------

  Step     Update method      Time    Convergence         Total energy    Change
  ------------------------------------------------------------------------------
     1 OT DIIS     0.80E-01    1.7     0.00689608      -299.0680861870 -2.99E+02
     2 OT DIIS     0.80E-01    1.9     0.00571248      -299.1071073029 -3.90E-02

  Leaving inner SCF loop after reaching     2 steps.


  Electronic density on regular grids:       -139.9999999792        0.0000000208
  Core density on regular grids:              139.9999989613       -0.0000010387
  Total charge density on r-space grids:       -0.0000010179
  Total charge density g-space grids:          -0.0000010179

  Overlap energy of the core charge distribution:               0.00000000771323
  Self energy of the core charge distribution:               -674.27535594731853
  Core Hamiltonian energy:                                    155.77747036706504
  Hartree energy:                                             277.52406660013196
  Exchange-correlation energy:                                -58.10710973588706
  Dispersion energy:                                           -0.02617859457265

  Total energy:                                              -299.10710730286809

  outer SCF iter =    1 RMS gradient =   0.57E-02 energy =       -299.1071073029

  ----------------------------------- OT ---------------------------------------
  Minimizer      : DIIS                : direct inversion
                                         in the iterative subspace
                                         using   7 DIIS vectors
                                         safer DIIS on
  Preconditioner : FULL_SINGLE_INVERSE : inversion of 
                                         H + eS - 2*(Sc)(c^T*H*c+const)(Sc)^T
  Precond_solver : DEFAULT
  stepsize       :    0.08000000                  energy_gap     :    0.08000000
  eps_taylor     :   0.10000E-15                  max_taylor     :             4
  ----------------------------------- OT ---------------------------------------

  Step     Update method      Time    Convergence         Total energy    Change
  ------------------------------------------------------------------------------
     1 OT DIIS     0.80E-01    3.9     0.00497635      -299.1185312079 -1.14E-02
     2 OT DIIS     0.80E-01    1.9     0.00952042      -299.1140708205  4.46E-03

  Leaving inner SCF loop after reaching     2 steps.


  Electronic density on regular grids:       -139.9999999794        0.0000000206
  Core density on regular grids:              139.9999989613       -0.0000010387
  Total charge density on r-space grids:       -0.0000010181
  Total charge density g-space grids:          -0.0000010181

  Overlap energy of the core charge distribution:               0.00000000771323
  Self energy of the core charge distribution:               -674.27535594731853
  Core Hamiltonian energy:                                    155.71588946076142
  Hartree energy:                                             277.57501401662489
  Exchange-correlation energy:                                -58.10343976374096
  Dispersion energy:                                           -0.02617859457265

  Total energy:                                              -299.11407082053256

  outer SCF iter =    2 RMS gradient =   0.95E-02 energy =       -299.1140708205

  ----------------------------------- OT ---------------------------------------
  Minimizer      : DIIS                : direct inversion
                                         in the iterative subspace
                                         using   7 DIIS vectors
                                         safer DIIS on
  Preconditioner : FULL_SINGLE_INVERSE : inversion of 
                                         H + eS - 2*(Sc)(c^T*H*c+const)(Sc)^T
  Precond_solver : DEFAULT
  stepsize       :    0.08000000                  energy_gap     :    0.08000000
  eps_taylor     :   0.10000E-15                  max_taylor     :             4
  ----------------------------------- OT ---------------------------------------

  Step     Update method      Time    Convergence         Total energy    Change
  ------------------------------------------------------------------------------
     1 OT DIIS     0.80E-01    3.9     0.00209846      -299.1345544967 -2.05E-02
     2 OT DIIS     0.80E-01    1.9     0.00261595      -299.1381603367 -3.61E-03

  Leaving inner SCF loop after reaching     2 steps.


  Electronic density on regular grids:       -139.9999999795        0.0000000205
  Core density on regular grids:              139.9999989613       -0.0000010387
  Total charge density on r-space grids:       -0.0000010183
  Total charge density g-space grids:          -0.0000010183

  Overlap energy of the core charge distribution:               0.00000000771323
  Self energy of the core charge distribution:               -674.27535594731853
  Core Hamiltonian energy:                                    155.69079263898527
  Hartree energy:                                             277.57601668954601
  Exchange-correlation energy:                                -58.10343513104025
  Dispersion energy:                                           -0.02617859457265

  Total energy:                                              -299.13816033668695

  outer SCF iter =    3 RMS gradient =   0.26E-02 energy =       -299.1381603367
  outer SCF loop FAILED to converge after    3 iterations or    6 steps


 *** WARNING in qs_scf.F:542 :: SCF run NOT converged ***

 Writing restart DM chlorine_SCF_DM_SPIN_1_RESTART.dm with checksum:       0.10819747E+04

 ENERGY| Total FORCE_EVAL ( QS ) energy (a.u.):             -299.140063328167969


 *******************************************************************************
 ENSEMBLE TYPE                =                                              NVT
 STEP NUMBER                  =                                                2
 TIME [fs]                    =                                         2.000000
 CONSERVED QUANTITY [hartree] =                              -0.299100915044E+03

                                              INSTANTANEOUS             AVERAGES
 CPU TIME [s]                 =                       14.51                22.20
 ENERGY DRIFT PER ATOM [K]    =         -0.794340854312E+04  -0.397170427156E+04
 POTENTIAL ENERGY[hartree]    =         -0.299140063328E+03  -0.299096241787E+03
 KINETIC ENERGY [hartree]     =          0.201392324192E-01   0.196618728463E-01
 TEMPERATURE [K]              =                     211.982              206.957
 PRESSURE [bar]               =          0.183145939797E+05   0.209445745951E+05
 *******************************************************************************


 -------------------------------------------------------------------------------
 -                                                                             -
 -                                DBCSR STATISTICS                             -
 -                                                                             -
 -------------------------------------------------------------------------------
 COUNTER                                    TOTAL       BLAS       SMM       ACC
 flops     6 x     6 x   260               168480     100.0%      0.0%      0.0%
 flops    13 x     6 x     6               336960     100.0%      0.0%      0.0%
 flops     6 x    32 x   260               898560     100.0%      0.0%      0.0%
 flops    32 x     6 x   260               898560     100.0%      0.0%      0.0%
 flops    13 x    32 x     6              1797120     100.0%      0.0%      0.0%
 flops    13 x     6 x    32              1797120     100.0%      0.0%      0.0%
 flops    32 x    32 x   260             14376960     100.0%      0.0%      0.0%
 flops    13 x    32 x    32             28753920     100.0%      0.0%      0.0%
 flops    13 x     6 x    13             62957232     100.0%      0.0%      0.0%
 flops    70 x    70 x    70             72716000     100.0%      0.0%      0.0%
 flops    70 x    70 x   260            160524000     100.0%      0.0%      0.0%
 flops    13 x    13 x    70            178301760     100.0%      0.0%      0.0%
 flops   260 x    70 x    70            183456000     100.0%      0.0%      0.0%
 flops   260 x    70 x   260            255528000     100.0%      0.0%      0.0%
 flops    13 x    32 x    13            671543808     100.0%      0.0%      0.0%
 flops inhomo. stacks                           0       0.0%      0.0%      0.0%
 flops total                         1.634054E+09     100.0%      0.0%      0.0%
 flops max/rank                      1.634054E+09     100.0%      0.0%      0.0%
 matmuls inhomo. stacks                         0       0.0%      0.0%      0.0%
 matmuls total                             103150     100.0%      0.0%      0.0%
 number of processed stacks                   550     100.0%      0.0%      0.0%
 average stack size                                   187.5       0.0       0.0
 marketing flops                     1.842846E+09
 -------------------------------------------------------------------------------
 # multiplications                            418
 max memory usage/rank             851.025920E+06
 # max total images/rank                        1
 # max 3D layers                                1
 # MPI messages exchanged                       0
 MPI messages size (bytes):
  total size                         0.000000E+00
  min size                           0.000000E+00
  max size                           0.000000E+00
  average size                       0.000000E+00
 MPI breakdown and total messages size (bytes):
             size <=      128                   0                        0
       128 < size <=     8192                   0                        0
      8192 < size <=    32768                   0                        0
     32768 < size <=   131072                   0                        0
    131072 < size <=  4194304                   0                        0
   4194304 < size <= 16777216                   0                        0
  16777216 < size                               0                        0
 -------------------------------------------------------------------------------
 -                                                                             -
 -                      DBCSR MESSAGE PASSING PERFORMANCE                      -
 -                                                                             -
 -------------------------------------------------------------------------------

 ROUTINE             CALLS      AVE VOLUME [Bytes]
 MP_Group               69
 MP_Bcast               16                     12.
 MP_Allreduce         2110                      8.
 MP_Alltoall          2338                  58130.
 MP_Wait             10032
 MP_ISend             1636                   1691.
 MP_IRecv             1636                   1691.
 MP_Memory           14816
 -------------------------------------------------------------------------------

 
 MEMORY| Estimated peak process memory [MiB]                                 812

 -------------------------------------------------------------------------------
 -                                                                             -
 -                         MESSAGE PASSING PERFORMANCE                         -
 -                                                                             -
 -------------------------------------------------------------------------------

 ROUTINE             CALLS      AVE VOLUME [Bytes]
 MP_Group                4
 MP_Bcast             1921                   1724.
 MP_Allreduce         5637                    946.
 MP_Sync                 4
 -------------------------------------------------------------------------------


 -------------------------------------------------------------------------------
 -                                                                             -
 -                           R E F E R E N C E S                               -
 -                                                                             -
 -------------------------------------------------------------------------------
 
 CP2K version 7.0 (Development Version), the CP2K developers group (2018).
 CP2K is freely available from https://www.cp2k.org/ .

 Schuett, Ole; Messmer, Peter; Hutter, Juerg; VandeVondele, Joost. 
 Electronic Structure Calculations on Graphics Processing Units, John Wiley & Sons, Ltd, 173-190 (2016). 
 GPU-Accelerated Sparse Matrix-Matrix Multiplication for Linear Scaling Density Functional Theory.
 https://dx.doi.org/10.1002/9781118670712.ch8


 Borstnik, U; VandeVondele, J; Weber, V; Hutter, J. 
 PARALLEL COMPUTING, 40 (5-6), 47-58 (2014). 
 Sparse matrix multiplication: The distributed block-compressed sparse
 row library.
 https://dx.doi.org/10.1016/j.parco.2014.03.012


 Hutter, J; Iannuzzi, M; Schiffmann, F; VandeVondele, J. 
 WILEY INTERDISCIPLINARY REVIEWS-COMPUTATIONAL MOLECULAR SCIENCE, 4 (1), 15-25 (2014). 
 CP2K: atomistic simulations of condensed matter systems.
 https://dx.doi.org/10.1002/wcms.1159


 Grimme, S; Ehrlich, S; Goerigk, L. 
 JOURNAL OF COMPUTATIONAL CHEMISTRY, 32, 1456 (2011). 
 Effect of the damping function in dispersion corrected density functional theory.
 https://dx.doi.org/10.1002/jcc.21759


 Grimme, S; Antony, J; Ehrlich, S; Krieg, H. 
 JOURNAL OF CHEMICAL PHYSICS, 132 (15), 154104 (2010). 
 A consistent and accurate ab initio parametrization of density
 functional dispersion correction (DFT-D) for the 94 elements H-Pu.
 https://dx.doi.org/10.1063/1.3382344


 VandeVondele, J; Hutter, J. 
 JOURNAL OF CHEMICAL PHYSICS, 127 (11), 114105 (2007). 
 Gaussian basis sets for accurate calculations on molecular systems in
 gas and condensed phases.
 https://dx.doi.org/10.1063/1.2770708


 Krack, M. 
 THEORETICAL CHEMISTRY ACCOUNTS, 114 (1-3), 145-152 (2005). 
 Pseudopotentials for H to Kr optimized for gradient-corrected
 exchange-correlation functionals.
 https://dx.doi.org/10.1007/s00214-005-0655-y


 VandeVondele, J; Krack, M; Mohamed, F; Parrinello, M; Chassaing, T;
 Hutter, J. COMPUTER PHYSICS COMMUNICATIONS, 167 (2), 103-128 (2005). 
 QUICKSTEP: Fast and accurate density functional calculations using a
 mixed Gaussian and plane waves approach.
 https://dx.doi.org/10.1016/j.cpc.2004.12.014


 Frigo, M; Johnson, SG. 
 PROCEEDINGS OF THE IEEE, 93 (2), 216-231 (2005). 
 The design and implementation of FFTW3.
 https://dx.doi.org/10.1109/JPROC.2004.840301


 Kolafa, J. 
 JOURNAL OF COMPUTATIONAL CHEMISTRY, 25 (3), 335-342 (2004). 
 Time-reversible always stable predictor-corrector method for molecular dynamics of polarizable molecules.
 https://dx.doi.org/10.1002/jcc.10385


 VandeVondele, J; Hutter, J. 
 JOURNAL OF CHEMICAL PHYSICS, 118 (10), 4365-4369 (2003). 
 An efficient orbital transformation method for electronic structure
 calculations.
 https://dx.doi.org/10.1063/1.1543154


 Hartwigsen, C; Goedecker, S; Hutter, J. 
 PHYSICAL REVIEW B, 58 (7), 3641-3662 (1998). 
 Relativistic separable dual-space Gaussian pseudopotentials from H to Rn.
 https://dx.doi.org/10.1103/PhysRevB.58.3641


 Lippert, G; Hutter, J; Parrinello, M. 
 MOLECULAR PHYSICS, 92 (3), 477-487 (1997). 
 A hybrid Gaussian and plane wave density functional scheme.
 https://dx.doi.org/10.1080/002689797170220


 Perdew, JP; Burke, K; Ernzerhof, M. 
 PHYSICAL REVIEW LETTERS, 77 (18), 3865-3868 (1996). 
 Generalized gradient approximation made simple.
 https://dx.doi.org/10.1103/PhysRevLett.77.3865


 Goedecker, S; Teter, M; Hutter, J. 
 PHYSICAL REVIEW B, 54 (3), 1703-1710 (1996). 
 Separable dual-space Gaussian pseudopotentials.
 https://dx.doi.org/10.1103/PhysRevB.54.1703


 NOSE, S. JOURNAL OF CHEMICAL PHYSICS, 81 (1), 511-519 (1984). 
 A UNIFIED FORMULATION OF THE CONSTANT TEMPERATURE MOLECULAR-DYNAMICS
 METHODS.
 https://dx.doi.org/10.1063/1.447334


 NOSE, S. MOLECULAR PHYSICS, 52 (2), 255-268 (1984). 
 A MOLECULAR-DYNAMICS METHOD FOR SIMULATIONS IN THE CANONICAL ENSEMBLE.
 https://dx.doi.org/10.1080/00268978400101201


 -------------------------------------------------------------------------------
 -                                                                             -
 -                                T I M I N G                                  -
 -                                                                             -
 -------------------------------------------------------------------------------
 SUBROUTINE                       CALLS  ASD         SELF TIME        TOTAL TIME
                                MAXIMUM       AVERAGE  MAXIMUM  AVERAGE  MAXIMUM
 CP2K                                 1  1.0    0.052    0.052   45.776   45.776
 qs_mol_dyn_low                       1  2.0    0.004    0.004   44.605   44.605
 qs_forces                            3  3.7    0.000    0.000   44.103   44.103
 qs_energies                          3  4.7    0.000    0.000   37.824   37.824
 rebuild_ks_matrix                   21  8.2    0.000    0.000   35.773   35.773
 qs_ks_build_kohn_sham_matrix        21  9.2    0.003    0.003   35.773   35.773
 scf_env_do_scf                       3  5.7    0.001    0.001   35.221   35.221
 qs_ks_update_qs_env                 27  7.7    0.000    0.000   29.663   29.663
 velocity_verlet                      2  3.0    0.000    0.000   28.832   28.832
 qs_vxc_create                       21 10.2    0.000    0.000   27.501   27.501
 xc_vxc_pw_create                    21 11.2    1.628    1.628   27.501   27.501
 pw_transfer                        402 12.0    0.032    0.032   22.199   22.199
 fft_wrap_pw1pw2                    360 13.1    0.003    0.003   21.992   21.992
 fft_wrap_pw1pw2_200                234 14.1    2.195    2.195   21.495   21.495
 scf_env_do_scf_inner_loop           18  6.7    0.002    0.002   19.629   19.629
 xc_rho_set_and_dset_create          21 12.2    0.162    0.162   17.348   17.348
 init_scf_loop                        9  6.7    0.000    0.000   15.589   15.589
 xc_functional_eval                  21 13.2    0.000    0.000   11.072   11.072
 pbe_lda_eval                        21 14.2   11.072   11.072   11.072   11.072
 fft3d_s                            361 15.0   10.785   10.785   10.794   10.794
 qs_ks_update_qs_env_forces           3  4.7    0.000    0.000    6.111    6.111
 qs_rho_update_rho                   21  7.8    0.000    0.000    5.747    5.747
 calculate_rho_elec                  21  8.8    1.239    1.239    5.747    5.747
 pw_scatter_s                       189 15.5    4.550    4.550    4.550    4.550
 density_rs2pw                       21  9.8    0.001    0.001    4.458    4.458
 pw_gather_s                        171 14.6    4.419    4.419    4.419    4.419
 sum_up_and_integrate                21 10.2    0.202    0.202    4.277    4.277
 integrate_v_rspace                  21 11.2    1.521    1.521    4.076    4.076
 potential_pw2rs                     21 12.2    0.010    0.010    2.553    2.553
 pw_poisson_solve                    21 10.2    1.469    1.469    1.818    1.818
 qs_init_subsys                       1  2.0    0.001    0.001    1.089    1.089
 init_scf_run                         3  5.7    0.000    0.000    1.035    1.035
 scf_env_initial_rho_setup            3  6.7    0.000    0.000    1.035    1.035
 qs_env_setup                         1  3.0    0.000    0.000    1.034    1.034
 qs_env_rebuild_pw_env                7  5.0    0.000    0.000    1.034    1.034
 pw_env_rebuild                       1  5.0    0.000    0.000    1.034    1.034
 pw_grid_setup                        4  6.0    0.000    0.000    1.027    1.027
 pw_grid_setup_internal               4  7.0    0.019    0.019    1.027    1.027
 pw_derive                          135 12.5    0.981    0.981    0.981    0.981
 scf_post_calculation_gpw             3  5.7    0.000    0.000    0.943    0.943
 write_available_results              3  6.7    0.000    0.000    0.942    0.942
 write_mo_dependent_results           3  7.7    0.000    0.000    0.942    0.942
 write_dm_binary_restart              3  8.7    0.000    0.000    0.942    0.942
 dbcsr_binary_write                   3  9.7    0.935    0.935    0.935    0.935
 -------------------------------------------------------------------------------

 The number of warnings for this run is : 3
 
 -------------------------------------------------------------------------------
  **** **** ******  **  PROGRAM ENDED AT                 2020-06-17 20:22:00.909
 ***** ** ***  *** **   PROGRAM RAN ON                                    ln1001
 **    ****   ******    PROGRAM RAN BY                                  singh891
 ***** **    ** ** **   PROGRAM PROCESS ID                                 11627
  **** **  *******  **  PROGRAM STOPPED IN /panfs/roc/scratch/singh891/dlt/cp2km
                                           d
