       2
 i =        1, E =       -29.9279036707
 Cl         2.0000000000        0.0000000000        0.0000000000
 Cl        -0.0049596733        0.0000000001        0.0000000001
       2
 i =        2, E =       -29.9279049859
 Cl         2.0000000000        0.0000000000        0.0000000000
 Cl        -0.0068642265        0.0000000002        0.0000000002
